                                                                
version 2
run General-0-20120416-13:50:20-22249
attr configname General
attr datetime 20120416-13:50:20
attr experiment General
attr inifile /home/kacper/omnetpp-4.1/workspace/ReaSE/simulations/omnetpp.ini
attr iterationvars ""
attr iterationvars2 $repetition=0
attr measurement ""
attr network Inet
attr processid 22249
attr repetition 0
attr replication #0
attr resultdir results
attr runnumber 0
attr seedset 0

vector 0  Inet.wormstatistic  "Infected Hosts"  ETV
vector 5983  Inet.sas17.host76.ppp[0].queue  "queue length"  ETV
vector 2969  Inet.sas7.host39.ppp[0].queue  "queue length"  ETV
vector 1237  Inet.tas3.host25.ppp[0].queue  "queue length"  ETV
vector 5499  Inet.sas16.host35.ppp[0].queue  "queue length"  ETV
vector 6481  Inet.sas18.host107.ppp[0].queue  "queue length"  ETV
vector 2759  Inet.tas6.host91.ppp[0].queue  "queue length"  ETV
vector 951  Inet.tas2.host46.ppp[0].queue  "queue length"  ETV
vector 3573  Inet.tas9.host63.ppp[0].queue  "queue length"  ETV
vector 3847  Inet.tas10.host42.ppp[0].queue  "queue length"  ETV
vector 2097  Inet.sas5.host48.ppp[0].queue  "queue length"  ETV
vector 2949  Inet.sas7.host29.ppp[0].queue  "queue length"  ETV
vector 689  Inet.sas1.host70.ppp[0].queue  "queue length"  ETV
vector 4227  Inet.sas12.host12.ppp[0].queue  "queue length"  ETV
vector 2753  Inet.tas6.host88.ppp[0].queue  "queue length"  ETV
vector 2091  Inet.sas5.host45.ppp[0].queue  "queue length"  ETV
vector 2129  Inet.sas5.host64.ppp[0].queue  "queue length"  ETV
vector 573  Inet.sas1.host12.ppp[0].queue  "queue length"  ETV
vector 1339  Inet.tas3.host76.ppp[0].queue  "queue length"  ETV
vector 887  Inet.tas2.host14.ppp[0].queue  "queue length"  ETV
vector 1227  Inet.tas3.host20.ppp[0].queue  "queue length"  ETV
vector 2281  Inet.sas5.host140.ppp[0].queue  "queue length"  ETV
vector 6409  Inet.sas18.host71.ppp[0].queue  "queue length"  ETV
vector 6743  Inet.sas19.host51.ppp[0].queue  "queue length"  ETV
vector 5507  Inet.sas16.host39.ppp[0].queue  "queue length"  ETV
vector 2245  Inet.sas5.host122.ppp[0].queue  "queue length"  ETV
vector 2649  Inet.tas6.host36.ppp[0].queue  "queue length"  ETV
vector 5139  Inet.sas15.host72.ppp[0].queue  "queue length"  ETV
vector 3835  Inet.tas10.host36.ppp[0].queue  "queue length"  ETV
vector 5491  Inet.sas16.host31.ppp[0].queue  "queue length"  ETV
vector 2721  Inet.tas6.host72.ppp[0].queue  "queue length"  ETV
vector 2151  Inet.sas5.host75.ppp[0].queue  "queue length"  ETV
vector 4239  Inet.sas12.host18.ppp[0].queue  "queue length"  ETV
vector 2065  Inet.sas5.host32.ppp[0].queue  "queue length"  ETV
vector 3613  Inet.tas9.host83.ppp[0].queue  "queue length"  ETV
vector 5897  Inet.sas17.host33.ppp[0].queue  "queue length"  ETV
vector 6365  Inet.sas18.host49.ppp[0].queue  "queue length"  ETV
vector 637  Inet.sas1.host44.ppp[0].queue  "queue length"  ETV
vector 2619  Inet.tas6.host_WebServer21.ppp[0].queue  "queue length"  ETV
vector 2355  Inet.tas6.edge3.ppp[0].queue  "queue length"  ETV
vector 2347  Inet.tas6.gw2.ppp[4].queue  "queue length"  ETV
vector 2569  Inet.tas6.edge13.ppp[4].queue  "queue length"  ETV
vector 889  Inet.tas2.host15.ppp[0].queue  "queue length"  ETV
vector 5951  Inet.sas17.host60.ppp[0].queue  "queue length"  ETV
vector 6709  Inet.sas19.host34.ppp[0].queue  "queue length"  ETV
vector 6451  Inet.sas18.host_WebServer92.ppp[0].queue  "queue length"  ETV
vector 6245  Inet.sas18.edge13.ppp[0].queue  "queue length"  ETV
vector 747  Inet.tas2.gw1.ppp[6].queue  "queue length"  ETV
vector 861  Inet.tas2.edge7.ppp[3].queue  "queue length"  ETV
vector 5891  Inet.sas17.host30.ppp[0].queue  "queue length"  ETV
vector 2741  Inet.tas6.host82.ppp[0].queue  "queue length"  ETV
vector 2161  Inet.sas5.host80.ppp[0].queue  "queue length"  ETV
vector 3169  Inet.sas8.host_WebServer32.ppp[0].queue  "queue length"  ETV
vector 3065  Inet.sas8.edge6.ppp[0].queue  "queue length"  ETV
vector 3239  Inet.tas9.gw2.ppp[1].queue  "queue length"  ETV
vector 3389  Inet.tas9.edge9.ppp[4].queue  "queue length"  ETV
vector 6445  Inet.sas18.host89.ppp[0].queue  "queue length"  ETV
vector 3199  Inet.sas8.host47.ppp[0].queue  "queue length"  ETV
vector 2121  Inet.sas5.host60.ppp[0].queue  "queue length"  ETV
vector 3509  Inet.tas9.host31.ppp[0].queue  "queue length"  ETV
vector 2223  Inet.sas5.host111.ppp[0].queue  "queue length"  ETV
vector 3549  Inet.tas9.host51.ppp[0].queue  "queue length"  ETV
vector 2221  Inet.sas5.host110.ppp[0].queue  "queue length"  ETV
vector 6687  Inet.sas19.host23.ppp[0].queue  "queue length"  ETV
vector 6725  Inet.sas19.host42.ppp[0].queue  "queue length"  ETV
vector 5959  Inet.sas17.host64.ppp[0].queue  "queue length"  ETV
vector 6407  Inet.sas18.host70.ppp[0].queue  "queue length"  ETV
vector 6313  Inet.sas18.host23.ppp[0].queue  "queue length"  ETV
vector 913  Inet.tas2.host27.ppp[0].queue  "queue length"  ETV
vector 4235  Inet.sas12.host16.ppp[0].queue  "queue length"  ETV
vector 6441  Inet.sas18.host_WebServer87.ppp[0].queue  "queue length"  ETV
vector 2067  Inet.sas5.host33.ppp[0].queue  "queue length"  ETV
vector 6229  Inet.sas18.edge12.ppp[0].queue  "queue length"  ETV
vector 2329  Inet.tas6.gw1.ppp[3].queue  "queue length"  ETV
vector 2411  Inet.tas6.edge5.ppp[5].queue  "queue length"  ETV
vector 1569  Inet.tas4.host_WebServer31.ppp[0].queue  "queue length"  ETV
vector 1455  Inet.tas4.edge5.ppp[0].queue  "queue length"  ETV
vector 6033  Inet.sas18.gw2.ppp[6].queue  "queue length"  ETV
vector 6295  Inet.sas18.edge15.ppp[8].queue  "queue length"  ETV
vector 6749  Inet.sas19.host54.ppp[0].queue  "queue length"  ETV
vector 4423  Inet.sas13.host21.ppp[0].queue  "queue length"  ETV
vector 267  Inet.sas0.host36.ppp[0].queue  "queue length"  ETV
vector 5955  Inet.sas17.host_WebServer62.ppp[0].queue  "queue length"  ETV
vector 5781  Inet.sas17.edge9.ppp[0].queue  "queue length"  ETV
vector 379  Inet.sas1.gw2.ppp[3].queue  "queue length"  ETV
vector 547  Inet.sas1.edge10.ppp[5].queue  "queue length"  ETV
vector 5943  Inet.sas17.host56.ppp[0].queue  "queue length"  ETV
vector 3181  Inet.sas8.host38.ppp[0].queue  "queue length"  ETV
vector 2285  Inet.sas5.host_WebServer142.ppp[0].queue  "queue length"  ETV
vector 2009  Inet.sas5.edge20.ppp[0].queue  "queue length"  ETV
vector 1641  Inet.sas5.gw1.ppp[4].queue  "queue length"  ETV
vector 1751  Inet.sas5.edge7.ppp[3].queue  "queue length"  ETV
vector 3193  Inet.sas8.host_WebServer44.ppp[0].queue  "queue length"  ETV
vector 3087  Inet.sas8.edge7.ppp[0].queue  "queue length"  ETV
vector 1645  Inet.sas5.gw1.ppp[6].queue  "queue length"  ETV
vector 1795  Inet.sas5.edge9.ppp[7].queue  "queue length"  ETV
vector 6401  Inet.sas18.host67.ppp[0].queue  "queue length"  ETV
vector 943  Inet.tas2.host42.ppp[0].queue  "queue length"  ETV
vector 2731  Inet.tas6.host77.ppp[0].queue  "queue length"  ETV
vector 3545  Inet.tas9.host_WebServer49.ppp[0].queue  "queue length"  ETV
vector 3333  Inet.tas9.edge7.ppp[0].queue  "queue length"  ETV
vector 6029  Inet.sas18.gw2.ppp[4].queue  "queue length"  ETV
vector 6247  Inet.sas18.edge13.ppp[1].queue  "queue length"  ETV
vector 5083  Inet.sas15.host_WebServer44.ppp[0].queue  "queue length"  ETV
vector 4871  Inet.sas15.edge6.ppp[0].queue  "queue length"  ETV
vector 2987  Inet.sas8.gw1.ppp[6].queue  "queue length"  ETV
vector 3103  Inet.sas8.edge7.ppp[8].queue  "queue length"  ETV
vector 4051  Inet.sas11.host24.ppp[0].queue  "queue length"  ETV
vector 3547  Inet.tas9.host50.ppp[0].queue  "queue length"  ETV
vector 271  Inet.sas0.host38.ppp[0].queue  "queue length"  ETV
vector 605  Inet.sas1.host_WebServer28.ppp[0].queue  "queue length"  ETV
vector 427  Inet.sas1.edge5.ppp[0].queue  "queue length"  ETV
vector 363  Inet.sas1.gw1.ppp[1].queue  "queue length"  ETV
vector 389  Inet.sas1.edge3.ppp[1].queue  "queue length"  ETV
vector 5517  Inet.sas16.host44.ppp[0].queue  "queue length"  ETV
vector 6659  Inet.sas19.host9.ppp[0].queue  "queue length"  ETV
vector 5605  Inet.sas16.host88.ppp[0].queue  "queue length"  ETV
vector 4093  Inet.sas11.host_WebServer45.ppp[0].queue  "queue length"  ETV
vector 3977  Inet.sas11.edge6.ppp[0].queue  "queue length"  ETV
vector 5651  Inet.sas17.gw2.ppp[1].queue  "queue length"  ETV
vector 5795  Inet.sas17.edge9.ppp[7].queue  "queue length"  ETV
vector 3795  Inet.tas10.host16.ppp[0].queue  "queue length"  ETV
vector 1537  Inet.tas4.host15.ppp[0].queue  "queue length"  ETV
vector 293  Inet.sas0.host_WebServer49.ppp[0].queue  "queue length"  ETV
vector 141  Inet.sas0.edge8.ppp[0].queue  "queue length"  ETV
vector 3233  Inet.tas9.gw1.ppp[5].queue  "queue length"  ETV
vector 3353  Inet.tas9.edge7.ppp[10].queue  "queue length"  ETV
vector 2727  Inet.tas6.host75.ppp[0].queue  "queue length"  ETV
vector 3817  Inet.tas10.host27.ppp[0].queue  "queue length"  ETV
vector 4055  Inet.sas11.host26.ppp[0].queue  "queue length"  ETV
vector 4467  Inet.sas13.host_WebServer43.ppp[0].queue  "queue length"  ETV
vector 4373  Inet.sas13.edge6.ppp[0].queue  "queue length"  ETV
vector 739  Inet.tas2.gw1.ppp[2].queue  "queue length"  ETV
vector 775  Inet.tas2.edge3.ppp[2].queue  "queue length"  ETV
vector 691  Inet.sas1.host71.ppp[0].queue  "queue length"  ETV
vector 6483  Inet.sas18.host108.ppp[0].queue  "queue length"  ETV
vector 1563  Inet.tas4.host28.ppp[0].queue  "queue length"  ETV
vector 4035  Inet.sas11.host16.ppp[0].queue  "queue length"  ETV
vector 3147  Inet.sas8.host21.ppp[0].queue  "queue length"  ETV
vector 2705  Inet.tas6.host_WebServer64.ppp[0].queue  "queue length"  ETV
vector 1659  Inet.sas5.gw2.ppp[5].queue  "queue length"  ETV
vector 1923  Inet.sas5.edge15.ppp[10].queue  "queue length"  ETV
vector 4117  Inet.sas11.host57.ppp[0].queue  "queue length"  ETV
vector 2905  Inet.sas7.host_WebServer7.ppp[0].queue  "queue length"  ETV
vector 2813  Inet.sas7.edge2.ppp[0].queue  "queue length"  ETV
vector 4277  Inet.sas13.gw1.ppp[2].queue  "queue length"  ETV
vector 4325  Inet.sas13.edge3.ppp[5].queue  "queue length"  ETV
vector 609  Inet.sas1.host30.ppp[0].queue  "queue length"  ETV
vector 1585  Inet.tas4.host39.ppp[0].queue  "queue length"  ETV
vector 4111  Inet.sas11.host54.ppp[0].queue  "queue length"  ETV
vector 6463  Inet.sas18.host_WebServer98.ppp[0].queue  "queue length"  ETV
vector 6499  Inet.sas19.gw1.ppp[4].queue  "queue length"  ETV
vector 6597  Inet.sas19.edge5.ppp[7].queue  "queue length"  ETV
vector 6705  Inet.sas19.host32.ppp[0].queue  "queue length"  ETV
vector 1583  Inet.tas4.host38.ppp[0].queue  "queue length"  ETV
vector 2909  Inet.sas7.host_WebServer9.ppp[0].queue  "queue length"  ETV
vector 1787  Inet.sas5.edge9.ppp[3].queue  "queue length"  ETV
vector 647  Inet.sas1.host49.ppp[0].queue  "queue length"  ETV
vector 3565  Inet.tas9.host_WebServer59.ppp[0].queue  "queue length"  ETV
vector 3359  Inet.tas9.edge8.ppp[0].queue  "queue length"  ETV
vector 6503  Inet.sas19.gw1.ppp[6].queue  "queue length"  ETV
vector 6627  Inet.sas19.edge7.ppp[1].queue  "queue length"  ETV
vector 2061  Inet.sas5.host_WebServer30.ppp[0].queue  "queue length"  ETV
vector 2013  Inet.sas5.edge20.ppp[2].queue  "queue length"  ETV
vector 1533  Inet.tas4.host13.ppp[0].queue  "queue length"  ETV
vector 3815  Inet.tas10.host_WebServer26.ppp[0].queue  "queue length"  ETV
vector 3717  Inet.tas10.edge4.ppp[0].queue  "queue length"  ETV
vector 1665  Inet.sas5.gw3.ppp[1].queue  "queue length"  ETV
vector 1959  Inet.sas5.edge17.ppp[3].queue  "queue length"  ETV
vector 5163  Inet.sas15.host84.ppp[0].queue  "queue length"  ETV
vector 23  Inet.sas0.gw1.ppp[4].queue  "queue length"  ETV
vector 109  Inet.sas0.edge6.ppp[5].queue  "queue length"  ETV
vector 5899  Inet.sas17.host34.ppp[0].queue  "queue length"  ETV
vector 6431  Inet.sas18.host82.ppp[0].queue  "queue length"  ETV
vector 955  Inet.tas2.host_WebServer48.ppp[0].queue  "queue length"  ETV
vector 805  Inet.tas2.edge4.ppp[6].queue  "queue length"  ETV
vector 2655  Inet.tas6.host_WebServer39.ppp[0].queue  "queue length"  ETV
vector 2419  Inet.tas6.edge6.ppp[0].queue  "queue length"  ETV
vector 2343  Inet.tas6.gw2.ppp[2].queue  "queue length"  ETV
vector 2529  Inet.tas6.edge11.ppp[6].queue  "queue length"  ETV
vector 4725  Inet.sas14.host42.ppp[0].queue  "queue length"  ETV
vector 4259  Inet.sas12.host28.ppp[0].queue  "queue length"  ETV
vector 2141  Inet.sas5.host_WebServer70.ppp[0].queue  "queue length"  ETV
vector 1805  Inet.sas5.edge10.ppp[0].queue  "queue length"  ETV
vector 1003  Inet.tas3.gw2.ppp[3].queue  "queue length"  ETV
vector 1191  Inet.tas3.edge12.ppp[3].queue  "queue length"  ETV
vector 2563  Inet.tas6.edge13.ppp[1].queue  "queue length"  ETV
vector 6711  Inet.sas19.host35.ppp[0].queue  "queue length"  ETV
vector 6427  Inet.sas18.host80.ppp[0].queue  "queue length"  ETV
vector 903  Inet.tas2.host22.ppp[0].queue  "queue length"  ETV
vector 3179  Inet.sas8.host_WebServer37.ppp[0].queue  "queue length"  ETV
vector 4085  Inet.sas11.host41.ppp[0].queue  "queue length"  ETV
vector 4135  Inet.sas12.gw1.ppp[3].queue  "queue length"  ETV
vector 4181  Inet.sas12.edge4.ppp[1].queue  "queue length"  ETV
vector 895  Inet.tas2.host18.ppp[0].queue  "queue length"  ETV
vector 3141  Inet.sas8.host18.ppp[0].queue  "queue length"  ETV
vector 1615  Inet.tas4.host54.ppp[0].queue  "queue length"  ETV
vector 6729  Inet.sas19.host44.ppp[0].queue  "queue length"  ETV
vector 3479  Inet.tas9.host_WebServer16.ppp[0].queue  "queue length"  ETV
vector 549  Inet.sas1.edge10.ppp[6].queue  "queue length"  ETV
vector 3633  Inet.tas9.host93.ppp[0].queue  "queue length"  ETV
vector 625  Inet.sas1.host38.ppp[0].queue  "queue length"  ETV
vector 3789  Inet.tas10.host13.ppp[0].queue  "queue length"  ETV
vector 6665  Inet.sas19.host_WebServer12.ppp[0].queue  "queue length"  ETV
vector 6511  Inet.sas19.edge2.ppp[0].queue  "queue length"  ETV
vector 6497  Inet.sas19.gw1.ppp[3].queue  "queue length"  ETV
vector 6571  Inet.sas19.edge4.ppp[4].queue  "queue length"  ETV
vector 4039  Inet.sas11.host_WebServer18.ppp[0].queue  "queue length"  ETV
vector 3907  Inet.sas11.edge3.ppp[0].queue  "queue length"  ETV
vector 3877  Inet.sas11.gw1.ppp[6].queue  "queue length"  ETV
vector 4013  Inet.sas11.edge7.ppp[8].queue  "queue length"  ETV
vector 4693  Inet.sas14.host_WebServer26.ppp[0].queue  "queue length"  ETV
vector 5429  Inet.sas16.edge13.ppp[8].queue  "queue length"  ETV
vector 959  Inet.tas2.host50.ppp[0].queue  "queue length"  ETV
vector 5051  Inet.sas15.host28.ppp[0].queue  "queue length"  ETV
vector 2685  Inet.tas6.host54.ppp[0].queue  "queue length"  ETV
vector 4733  Inet.sas14.host46.ppp[0].queue  "queue length"  ETV
vector 6345  Inet.sas18.host39.ppp[0].queue  "queue length"  ETV
vector 5859  Inet.sas17.host14.ppp[0].queue  "queue length"  ETV
vector 3581  Inet.tas9.host67.ppp[0].queue  "queue length"  ETV
vector 2805  Inet.sas7.gw1.ppp[4].queue  "queue length"  ETV
vector 2877  Inet.sas7.edge5.ppp[4].queue  "queue length"  ETV
vector 345  Inet.sas0.host75.ppp[0].queue  "queue length"  ETV
vector 1531  Inet.tas4.host12.ppp[0].queue  "queue length"  ETV
vector 6261  Inet.sas18.edge14.ppp[0].queue  "queue length"  ETV
vector 1383  Inet.tas4.gw1.ppp[5].queue  "queue length"  ETV
vector 1479  Inet.tas4.edge6.ppp[3].queue  "queue length"  ETV
vector 879  Inet.tas2.host_WebServer10.ppp[0].queue  "queue length"  ETV
vector 753  Inet.tas2.edge2.ppp[0].queue  "queue length"  ETV
vector 4007  Inet.sas11.edge7.ppp[5].queue  "queue length"  ETV
vector 2059  Inet.sas5.host29.ppp[0].queue  "queue length"  ETV
vector 285  Inet.sas0.host45.ppp[0].queue  "queue length"  ETV
vector 1557  Inet.tas4.host25.ppp[0].queue  "queue length"  ETV
vector 315  Inet.sas0.host60.ppp[0].queue  "queue length"  ETV
vector 6633  Inet.sas19.edge7.ppp[4].queue  "queue length"  ETV
vector 5055  Inet.sas15.host_WebServer30.ppp[0].queue  "queue length"  ETV
vector 4845  Inet.sas15.edge5.ppp[0].queue  "queue length"  ETV
vector 4797  Inet.sas15.gw2.ppp[3].queue  "queue length"  ETV
vector 4997  Inet.sas15.edge11.ppp[7].queue  "queue length"  ETV
vector 2709  Inet.tas6.host66.ppp[0].queue  "queue length"  ETV
vector 5935  Inet.sas17.host52.ppp[0].queue  "queue length"  ETV
vector 597  Inet.sas1.host_WebServer24.ppp[0].queue  "queue length"  ETV
vector 411  Inet.sas1.edge4.ppp[0].queue  "queue length"  ETV
vector 2807  Inet.sas7.gw1.ppp[5].queue  "queue length"  ETV
vector 2903  Inet.sas7.edge6.ppp[7].queue  "queue length"  ETV
vector 4247  Inet.sas12.host_WebServer22.ppp[0].queue  "queue length"  ETV
vector 5711  Inet.sas17.edge5.ppp[4].queue  "queue length"  ETV
vector 3781  Inet.tas10.host9.ppp[0].queue  "queue length"  ETV
vector 6403  Inet.sas18.host68.ppp[0].queue  "queue length"  ETV
vector 3351  Inet.tas9.edge7.ppp[9].queue  "queue length"  ETV
vector 5483  Inet.sas16.host27.ppp[0].queue  "queue length"  ETV
vector 5095  Inet.sas15.host50.ppp[0].queue  "queue length"  ETV
vector 5787  Inet.sas17.edge9.ppp[3].queue  "queue length"  ETV
vector 1597  Inet.tas4.host45.ppp[0].queue  "queue length"  ETV
vector 4715  Inet.sas14.host_WebServer37.ppp[0].queue  "queue length"  ETV
vector 4583  Inet.sas14.edge6.ppp[0].queue  "queue length"  ETV
vector 4137  Inet.sas12.gw1.ppp[4].queue  "queue length"  ETV
vector 4207  Inet.sas12.edge5.ppp[6].queue  "queue length"  ETV
vector 113  Inet.sas0.edge6.ppp[7].queue  "queue length"  ETV
vector 6715  Inet.sas19.host_WebServer37.ppp[0].queue  "queue length"  ETV
vector 6583  Inet.sas19.edge5.ppp[0].queue  "queue length"  ETV
vector 6493  Inet.sas19.gw1.ppp[1].queue  "queue length"  ETV
vector 6513  Inet.sas19.edge2.ppp[1].queue  "queue length"  ETV
vector 5065  Inet.sas15.host35.ppp[0].queue  "queue length"  ETV
vector 6501  Inet.sas19.gw1.ppp[5].queue  "queue length"  ETV
vector 6607  Inet.sas19.edge6.ppp[2].queue  "queue length"  ETV
vector 4427  Inet.sas13.host_WebServer23.ppp[0].queue  "queue length"  ETV
vector 4315  Inet.sas13.edge3.ppp[0].queue  "queue length"  ETV
vector 2519  Inet.tas6.edge11.ppp[1].queue  "queue length"  ETV
vector 611  Inet.sas1.host_WebServer31.ppp[0].queue  "queue length"  ETV
vector 1477  Inet.tas4.edge6.ppp[2].queue  "queue length"  ETV
vector 4045  Inet.sas11.host21.ppp[0].queue  "queue length"  ETV
vector 3725  Inet.tas10.edge4.ppp[4].queue  "queue length"  ETV
vector 4053  Inet.sas11.host25.ppp[0].queue  "queue length"  ETV
vector 3623  Inet.tas9.host88.ppp[0].queue  "queue length"  ETV
vector 3785  Inet.tas10.host11.ppp[0].queue  "queue length"  ETV
vector 5927  Inet.sas17.host48.ppp[0].queue  "queue length"  ETV
vector 3845  Inet.tas10.host41.ppp[0].queue  "queue length"  ETV
vector 701  Inet.sas1.host76.ppp[0].queue  "queue length"  ETV
vector 3241  Inet.tas9.gw2.ppp[2].queue  "queue length"  ETV
vector 3403  Inet.tas9.edge10.ppp[3].queue  "queue length"  ETV
vector 1607  Inet.tas4.host50.ppp[0].queue  "queue length"  ETV
vector 4403  Inet.sas13.host11.ppp[0].queue  "queue length"  ETV
vector 2465  Inet.tas6.edge8.ppp[2].queue  "queue length"  ETV
vector 2155  Inet.sas5.host77.ppp[0].queue  "queue length"  ETV
vector 1231  Inet.tas3.host22.ppp[0].queue  "queue length"  ETV
vector 2711  Inet.tas6.host67.ppp[0].queue  "queue length"  ETV
vector 1599  Inet.tas4.host_WebServer46.ppp[0].queue  "queue length"  ETV
vector 1493  Inet.tas4.edge7.ppp[0].queue  "queue length"  ETV
vector 4133  Inet.sas12.gw1.ppp[2].queue  "queue length"  ETV
vector 4171  Inet.sas12.edge3.ppp[6].queue  "queue length"  ETV
vector 855  Inet.tas2.edge7.ppp[0].queue  "queue length"  ETV
vector 6015  Inet.sas18.gw1.ppp[5].queue  "queue length"  ETV
vector 6131  Inet.sas18.edge7.ppp[6].queue  "queue length"  ETV
vector 1613  Inet.tas4.host53.ppp[0].queue  "queue length"  ETV
vector 5933  Inet.sas17.host_WebServer51.ppp[0].queue  "queue length"  ETV
vector 5765  Inet.sas17.edge8.ppp[0].queue  "queue length"  ETV
vector 6495  Inet.sas19.gw1.ppp[2].queue  "queue length"  ETV
vector 6547  Inet.sas19.edge3.ppp[5].queue  "queue length"  ETV
vector 5153  Inet.sas15.host79.ppp[0].queue  "queue length"  ETV
vector 2111  Inet.sas5.host55.ppp[0].queue  "queue length"  ETV
vector 4749  Inet.sas14.host54.ppp[0].queue  "queue length"  ETV
vector 3609  Inet.tas9.host81.ppp[0].queue  "queue length"  ETV
vector 5901  Inet.sas17.host35.ppp[0].queue  "queue length"  ETV
vector 2687  Inet.tas6.host55.ppp[0].queue  "queue length"  ETV
vector 3657  Inet.tas10.gw1.ppp[1].queue  "queue length"  ETV
vector 3685  Inet.tas10.edge2.ppp[7].queue  "queue length"  ETV
vector 31  Inet.sas0.gw2.ppp[2].queue  "queue length"  ETV
vector 175  Inet.sas0.edge9.ppp[7].queue  "queue length"  ETV
vector 3567  Inet.tas9.host60.ppp[0].queue  "queue length"  ETV
vector 5593  Inet.sas16.host82.ppp[0].queue  "queue length"  ETV
vector 6423  Inet.sas18.host78.ppp[0].queue  "queue length"  ETV
vector 2127  Inet.sas5.host63.ppp[0].queue  "queue length"  ETV
vector 369  Inet.sas1.gw1.ppp[4].queue  "queue length"  ETV
vector 459  Inet.sas1.edge6.ppp[6].queue  "queue length"  ETV
vector 1263  Inet.tas3.host_WebServer38.ppp[0].queue  "queue length"  ETV
vector 1083  Inet.tas3.edge7.ppp[0].queue  "queue length"  ETV
vector 5637  Inet.sas17.gw1.ppp[1].queue  "queue length"  ETV
vector 5667  Inet.sas17.edge3.ppp[2].queue  "queue length"  ETV
vector 2773  Inet.tas6.host98.ppp[0].queue  "queue length"  ETV
vector 919  Inet.tas2.host_WebServer30.ppp[0].queue  "queue length"  ETV
vector 793  Inet.tas2.edge4.ppp[0].queue  "queue length"  ETV
vector 4783  Inet.sas15.gw1.ppp[3].queue  "queue length"  ETV
vector 4849  Inet.sas15.edge5.ppp[2].queue  "queue length"  ETV
vector 1561  Inet.tas4.host_WebServer27.ppp[0].queue  "queue length"  ETV
vector 1431  Inet.tas4.edge4.ppp[0].queue  "queue length"  ETV
vector 1387  Inet.tas4.gw1.ppp[7].queue  "queue length"  ETV
vector 1521  Inet.tas4.edge8.ppp[4].queue  "queue length"  ETV
vector 1221  Inet.tas3.host17.ppp[0].queue  "queue length"  ETV
vector 2703  Inet.tas6.host63.ppp[0].queue  "queue length"  ETV
vector 4099  Inet.sas11.host48.ppp[0].queue  "queue length"  ETV
vector 2621  Inet.tas6.host22.ppp[0].queue  "queue length"  ETV
vector 2199  Inet.sas5.host99.ppp[0].queue  "queue length"  ETV
vector 3873  Inet.sas11.gw1.ppp[4].queue  "queue length"  ETV
vector 3969  Inet.sas11.edge5.ppp[8].queue  "queue length"  ETV
vector 1385  Inet.tas4.gw1.ppp[6].queue  "queue length"  ETV
vector 1497  Inet.tas4.edge7.ppp[2].queue  "queue length"  ETV
vector 3787  Inet.tas10.host12.ppp[0].queue  "queue length"  ETV
vector 5023  Inet.sas15.host_WebServer14.ppp[0].queue  "queue length"  ETV
vector 4805  Inet.sas15.edge3.ppp[0].queue  "queue length"  ETV
vector 3665  Inet.tas10.gw1.ppp[5].queue  "queue length"  ETV
vector 3765  Inet.tas10.edge6.ppp[1].queue  "queue length"  ETV
vector 6465  Inet.sas18.host99.ppp[0].queue  "queue length"  ETV
vector 3137  Inet.sas8.host16.ppp[0].queue  "queue length"  ETV
vector 6009  Inet.sas18.gw1.ppp[2].queue  "queue length"  ETV
vector 6061  Inet.sas18.edge4.ppp[2].queue  "queue length"  ETV
vector 5503  Inet.sas16.host_WebServer37.ppp[0].queue  "queue length"  ETV
vector 5275  Inet.sas16.edge6.ppp[0].queue  "queue length"  ETV
vector 25  Inet.sas0.gw1.ppp[5].queue  "queue length"  ETV
vector 133  Inet.sas0.edge7.ppp[7].queue  "queue length"  ETV
vector 2943  Inet.sas7.host26.ppp[0].queue  "queue length"  ETV
vector 4787  Inet.sas15.gw1.ppp[5].queue  "queue length"  ETV
vector 4905  Inet.sas15.edge7.ppp[5].queue  "queue length"  ETV
vector 679  Inet.sas1.host65.ppp[0].queue  "queue length"  ETV
vector 1635  Inet.sas5.gw1.ppp[1].queue  "queue length"  ETV
vector 1695  Inet.sas5.edge4.ppp[8].queue  "queue length"  ETV
vector 2125  Inet.sas5.host62.ppp[0].queue  "queue length"  ETV
vector 6311  Inet.sas18.host22.ppp[0].queue  "queue length"  ETV
vector 3829  Inet.tas10.host_WebServer33.ppp[0].queue  "queue length"  ETV
vector 3737  Inet.tas10.edge5.ppp[0].queue  "queue length"  ETV
vector 3767  Inet.tas10.edge6.ppp[2].queue  "queue length"  ETV
vector 3245  Inet.tas9.gw2.ppp[4].queue  "queue length"  ETV
vector 3447  Inet.tas9.edge12.ppp[5].queue  "queue length"  ETV
vector 2707  Inet.tas6.host65.ppp[0].queue  "queue length"  ETV
vector 5465  Inet.sas16.host18.ppp[0].queue  "queue length"  ETV
vector 3555  Inet.tas9.host54.ppp[0].queue  "queue length"  ETV
vector 2653  Inet.tas6.host38.ppp[0].queue  "queue length"  ETV
vector 651  Inet.sas1.host51.ppp[0].queue  "queue length"  ETV
vector 2195  Inet.sas5.host97.ppp[0].queue  "queue length"  ETV
vector 6019  Inet.sas18.gw1.ppp[7].queue  "queue length"  ETV
vector 6187  Inet.sas18.edge9.ppp[9].queue  "queue length"  ETV
vector 4863  Inet.sas15.edge5.ppp[9].queue  "queue length"  ETV
vector 371  Inet.sas1.gw1.ppp[5].queue  "queue length"  ETV
vector 477  Inet.sas1.edge7.ppp[3].queue  "queue length"  ETV
vector 2669  Inet.tas6.host46.ppp[0].queue  "queue length"  ETV
vector 781  Inet.tas2.edge3.ppp[5].queue  "queue length"  ETV
vector 2631  Inet.tas6.host27.ppp[0].queue  "queue length"  ETV
vector 5103  Inet.sas15.host54.ppp[0].queue  "queue length"  ETV
vector 341  Inet.sas0.host73.ppp[0].queue  "queue length"  ETV
vector 915  Inet.tas2.host28.ppp[0].queue  "queue length"  ETV
vector 983  Inet.tas3.gw1.ppp[1].queue  "queue length"  ETV
vector 1019  Inet.tas3.edge3.ppp[4].queue  "queue length"  ETV
vector 2907  Inet.sas7.host8.ppp[0].queue  "queue length"  ETV
vector 4245  Inet.sas12.host21.ppp[0].queue  "queue length"  ETV
vector 6023  Inet.sas18.gw2.ppp[1].queue  "queue length"  ETV
vector 6207  Inet.sas18.edge10.ppp[6].queue  "queue length"  ETV
vector 2197  Inet.sas5.host98.ppp[0].queue  "queue length"  ETV
vector 1271  Inet.tas3.host42.ppp[0].queue  "queue length"  ETV
vector 2589  Inet.tas6.edge14.ppp[1].queue  "queue length"  ETV
vector 5559  Inet.sas16.host65.ppp[0].queue  "queue length"  ETV
vector 5611  Inet.sas16.host91.ppp[0].queue  "queue length"  ETV
vector 4705  Inet.sas14.host32.ppp[0].queue  "queue length"  ETV
vector 1327  Inet.tas3.host70.ppp[0].queue  "queue length"  ETV
vector 4179  Inet.sas12.edge4.ppp[0].queue  "queue length"  ETV
vector 6031  Inet.sas18.gw2.ppp[5].queue  "queue length"  ETV
vector 6273  Inet.sas18.edge14.ppp[6].queue  "queue length"  ETV
vector 3189  Inet.sas8.host42.ppp[0].queue  "queue length"  ETV
vector 4667  Inet.sas14.host13.ppp[0].queue  "queue length"  ETV
vector 4713  Inet.sas14.host36.ppp[0].queue  "queue length"  ETV
vector 591  Inet.sas1.host_WebServer21.ppp[0].queue  "queue length"  ETV
vector 4275  Inet.sas13.gw1.ppp[1].queue  "queue length"  ETV
vector 4299  Inet.sas13.edge2.ppp[5].queue  "queue length"  ETV
vector 6721  Inet.sas19.host40.ppp[0].queue  "queue length"  ETV
vector 6181  Inet.sas18.edge9.ppp[6].queue  "queue length"  ETV
vector 3867  Inet.sas11.gw1.ppp[1].queue  "queue length"  ETV
vector 3901  Inet.sas11.edge2.ppp[9].queue  "queue length"  ETV
vector 5049  Inet.sas15.host_WebServer27.ppp[0].queue  "queue length"  ETV
vector 4987  Inet.sas15.edge11.ppp[2].queue  "queue length"  ETV
vector 2167  Inet.sas5.host83.ppp[0].queue  "queue length"  ETV
vector 5921  Inet.sas17.host45.ppp[0].queue  "queue length"  ETV
vector 3841  Inet.tas10.host39.ppp[0].queue  "queue length"  ETV
vector 4425  Inet.sas13.host22.ppp[0].queue  "queue length"  ETV
vector 4699  Inet.sas14.host29.ppp[0].queue  "queue length"  ETV
vector 6675  Inet.sas19.host17.ppp[0].queue  "queue length"  ETV
vector 6411  Inet.sas18.host72.ppp[0].queue  "queue length"  ETV
vector 4241  Inet.sas12.host_WebServer19.ppp[0].queue  "queue length"  ETV
vector 4163  Inet.sas12.edge3.ppp[2].queue  "queue length"  ETV
vector 2871  Inet.sas7.edge5.ppp[1].queue  "queue length"  ETV
vector 4263  Inet.sas12.host30.ppp[0].queue  "queue length"  ETV
vector 2799  Inet.sas7.gw1.ppp[1].queue  "queue length"  ETV
vector 2817  Inet.sas7.edge2.ppp[2].queue  "queue length"  ETV
vector 4435  Inet.sas13.host27.ppp[0].queue  "queue length"  ETV
vector 2233  Inet.sas5.host_WebServer116.ppp[0].queue  "queue length"  ETV
vector 1035  Inet.tas3.edge4.ppp[3].queue  "queue length"  ETV
vector 1929  Inet.sas5.edge16.ppp[0].queue  "queue length"  ETV
vector 1657  Inet.sas5.gw2.ppp[4].queue  "queue length"  ETV
vector 1891  Inet.sas5.edge14.ppp[4].queue  "queue length"  ETV
vector 5907  Inet.sas17.host38.ppp[0].queue  "queue length"  ETV
vector 5123  Inet.sas15.host64.ppp[0].queue  "queue length"  ETV
vector 4703  Inet.sas14.host31.ppp[0].queue  "queue length"  ETV
vector 1307  Inet.tas3.host60.ppp[0].queue  "queue length"  ETV
vector 3481  Inet.tas9.host17.ppp[0].queue  "queue length"  ETV
vector 4251  Inet.sas12.host24.ppp[0].queue  "queue length"  ETV
vector 1519  Inet.tas4.edge8.ppp[3].queue  "queue length"  ETV
vector 2217  Inet.sas5.host108.ppp[0].queue  "queue length"  ETV
vector 3503  Inet.tas9.host28.ppp[0].queue  "queue length"  ETV
vector 4679  Inet.sas14.host19.ppp[0].queue  "queue length"  ETV
vector 367  Inet.sas1.gw1.ppp[3].queue  "queue length"  ETV
vector 437  Inet.sas1.edge5.ppp[5].queue  "queue length"  ETV
vector 2421  Inet.tas6.edge6.ppp[1].queue  "queue length"  ETV
vector 4073  Inet.sas11.host35.ppp[0].queue  "queue length"  ETV
vector 5099  Inet.sas15.host52.ppp[0].queue  "queue length"  ETV
vector 3563  Inet.tas9.host58.ppp[0].queue  "queue length"  ETV
vector 2785  Inet.tas6.host_WebServer104.ppp[0].queue  "queue length"  ETV
vector 2587  Inet.tas6.edge14.ppp[0].queue  "queue length"  ETV
vector 2341  Inet.tas6.gw2.ppp[1].queue  "queue length"  ETV
vector 2501  Inet.tas6.edge10.ppp[2].queue  "queue length"  ETV
vector 5459  Inet.sas16.host_WebServer15.ppp[0].queue  "queue length"  ETV
vector 5221  Inet.sas16.edge3.ppp[0].queue  "queue length"  ETV
vector 2333  Inet.tas6.gw1.ppp[5].queue  "queue length"  ETV
vector 2443  Inet.tas6.edge7.ppp[1].queue  "queue length"  ETV
vector 6415  Inet.sas18.host74.ppp[0].queue  "queue length"  ETV
vector 3517  Inet.tas9.host35.ppp[0].queue  "queue length"  ETV
vector 927  Inet.tas2.host34.ppp[0].queue  "queue length"  ETV
vector 6385  Inet.sas18.host59.ppp[0].queue  "queue length"  ETV