file 8283219 1332432225                                         
version 2
run General-0-20120322-17:01:21-2625
attr configname General
attr datetime 20120322-17:01:21
attr experiment General
attr inifile /home/kacper/omnetpp-4.1/workspace/ReaSE/simulations/omnetpp.ini
attr iterationvars ""
attr iterationvars2 $repetition=0
attr measurement ""
attr network Inet
attr processid 2625
attr repetition 0
attr replication #0
attr resultdir results
attr runnumber 0
attr seedset 0

vector 4939  Inet.sas16.host39.ppp[0].queue  "queue length"  ETV
vector 0  Inet  "current overall packet/sec from Inet.sas1.core0"  ETV
vector 2  Inet  "current benign packet/sec from Inet.sas1.core0"  ETV
vector 1  Inet  "current malicious packet/sec from Inet.sas1.core0"  ETV
vector 3  Inet  "current overall packet/sec from Inet.sas1.gw1"  ETV
vector 5  Inet  "current benign packet/sec from Inet.sas1.gw1"  ETV
vector 4  Inet  "current malicious packet/sec from Inet.sas1.gw1"  ETV
vector 5337  Inet.sas17.host57.ppp[0].queue  "queue length"  ETV
vector 2643  Inet.sas7.host24.ppp[0].queue  "queue length"  ETV
vector 4653  Inet.sas15.host89.ppp[0].queue  "queue length"  ETV
vector 4909  Inet.sas16.host24.ppp[0].queue  "queue length"  ETV
vector 5773  Inet.sas18.host83.ppp[0].queue  "queue length"  ETV
vector 2455  Inet.tas6.host77.ppp[0].queue  "queue length"  ETV
vector 865  Inet.tas2.host45.ppp[0].queue  "queue length"  ETV
vector 3163  Inet.tas9.host42.ppp[0].queue  "queue length"  ETV
vector 3415  Inet.tas10.host20.ppp[0].queue  "queue length"  ETV
vector 1851  Inet.sas5.host39.ppp[0].queue  "queue length"  ETV
vector 3791  Inet.sas12.host8.ppp[0].queue  "queue length"  ETV
vector 2623  Inet.sas7.host14.ppp[0].queue  "queue length"  ETV
vector 631  Inet.sas1.host71.ppp[0].queue  "queue length"  ETV
vector 3691  Inet.sas11.host50.ppp[0].queue  "queue length"  ETV
vector 3649  Inet.sas11.host29.ppp[0].queue  "queue length"  ETV
vector 2449  Inet.tas6.host74.ppp[0].queue  "queue length"  ETV
vector 4957  Inet.sas16.host48.ppp[0].queue  "queue length"  ETV
vector 4527  Inet.sas15.host26.ppp[0].queue  "queue length"  ETV
vector 253  Inet.sas0.host43.ppp[0].queue  "queue length"  ETV
vector 2019  Inet.sas5.host123.ppp[0].queue  "queue length"  ETV
vector 6009  Inet.sas19.host28.ppp[0].queue  "queue length"  ETV
vector 4561  Inet.sas15.host43.ppp[0].queue  "queue length"  ETV
vector 4973  Inet.sas16.host56.ppp[0].queue  "queue length"  ETV
vector 6067  Inet.sas19.host57.ppp[0].queue  "queue length"  ETV
vector 6049  Inet.sas19.host48.ppp[0].queue  "queue length"  ETV
vector 4647  Inet.sas15.host86.ppp[0].queue  "queue length"  ETV
vector 6  Inet  "current overall packet/sec from Inet.sas1.edge5"  ETV
vector 8  Inet  "current benign packet/sec from Inet.sas1.edge5"  ETV
vector 7  Inet  "current malicious packet/sec from Inet.sas1.edge5"  ETV
vector 2405  Inet.tas6.host52.ppp[0].queue  "queue length"  ETV
vector 1893  Inet.sas5.host60.ppp[0].queue  "queue length"  ETV
vector 3701  Inet.sas11.host55.ppp[0].queue  "queue length"  ETV
vector 3687  Inet.sas11.host48.ppp[0].queue  "queue length"  ETV
vector 1823  Inet.sas5.host25.ppp[0].queue  "queue length"  ETV
vector 3635  Inet.sas11.host22.ppp[0].queue  "queue length"  ETV
vector 1387  Inet.tas4.host18.ppp[0].queue  "queue length"  ETV
vector 5057  Inet.sas16.host98.ppp[0].queue  "queue length"  ETV
vector 807  Inet.tas2.host16.ppp[0].queue  "queue length"  ETV
vector 2431  Inet.tas6.host65.ppp[0].queue  "queue length"  ETV
vector 5791  Inet.sas18.host_WebServer92.ppp[0].queue  "queue length"  ETV
vector 5593  Inet.sas18.edge13.ppp[0].queue  "queue length"  ETV
vector 2115  Inet.tas6.gw2.ppp[2].queue  "queue length"  ETV
vector 2265  Inet.tas6.edge11.ppp[6].queue  "queue length"  ETV
vector 1903  Inet.sas5.host65.ppp[0].queue  "queue length"  ETV
vector 1837  Inet.sas5.host32.ppp[0].queue  "queue length"  ETV
vector 5747  Inet.sas18.host70.ppp[0].queue  "queue length"  ETV
vector 2823  Inet.sas8.host21.ppp[0].queue  "queue length"  ETV
vector 801  Inet.tas2.host13.ppp[0].queue  "queue length"  ETV
vector 3137  Inet.tas9.host29.ppp[0].queue  "queue length"  ETV
vector 1963  Inet.sas5.host95.ppp[0].queue  "queue length"  ETV
vector 4199  Inet.sas14.host19.ppp[0].queue  "queue length"  ETV
vector 5995  Inet.sas19.host21.ppp[0].queue  "queue length"  ETV
vector 5301  Inet.sas17.host39.ppp[0].queue  "queue length"  ETV
vector 553  Inet.sas1.host32.ppp[0].queue  "queue length"  ETV
vector 5305  Inet.sas17.host41.ppp[0].queue  "queue length"  ETV
vector 5365  Inet.sas17.host71.ppp[0].queue  "queue length"  ETV
vector 2469  Inet.tas6.host84.ppp[0].queue  "queue length"  ETV
vector 3829  Inet.sas12.host27.ppp[0].queue  "queue length"  ETV
vector 1985  Inet.sas5.host106.ppp[0].queue  "queue length"  ETV
vector 1413  Inet.tas4.host_WebServer31.ppp[0].queue  "queue length"  ETV
vector 1311  Inet.tas4.edge5.ppp[0].queue  "queue length"  ETV
vector 4673  Inet.sas16.gw1.ppp[2].queue  "queue length"  ETV
vector 4719  Inet.sas16.edge4.ppp[5].queue  "queue length"  ETV
vector 1825  Inet.sas5.host26.ppp[0].queue  "queue length"  ETV
vector 5347  Inet.sas17.host_WebServer62.ppp[0].queue  "queue length"  ETV
vector 5185  Inet.sas17.edge9.ppp[0].queue  "queue length"  ETV
vector 3719  Inet.sas12.gw1.ppp[1].queue  "queue length"  ETV
vector 3733  Inet.sas12.edge2.ppp[3].queue  "queue length"  ETV
vector 3159  Inet.tas9.host40.ppp[0].queue  "queue length"  ETV
vector 6017  Inet.sas19.host32.ppp[0].queue  "queue length"  ETV
vector 3837  Inet.sas12.host31.ppp[0].queue  "queue length"  ETV
vector 4523  Inet.sas15.host24.ppp[0].queue  "queue length"  ETV
vector 3427  Inet.tas10.host_WebServer26.ppp[0].queue  "queue length"  ETV
vector 3337  Inet.tas10.edge4.ppp[0].queue  "queue length"  ETV
vector 5843  Inet.sas19.gw1.ppp[6].queue  "queue length"  ETV
vector 5955  Inet.sas19.edge7.ppp[7].queue  "queue length"  ETV
vector 2841  Inet.sas8.host30.ppp[0].queue  "queue length"  ETV
vector 3441  Inet.tas10.host_WebServer33.ppp[0].queue  "queue length"  ETV
vector 3353  Inet.tas10.edge5.ppp[0].queue  "queue length"  ETV
vector 3291  Inet.tas10.gw1.ppp[2].queue  "queue length"  ETV
vector 3329  Inet.tas10.edge3.ppp[7].queue  "queue length"  ETV
vector 2869  Inet.sas8.host_WebServer44.ppp[0].queue  "queue length"  ETV
vector 3483  Inet.sas11.gw1.ppp[3].queue  "queue length"  ETV
vector 3539  Inet.sas11.edge4.ppp[6].queue  "queue length"  ETV
vector 5709  Inet.sas18.host51.ppp[0].queue  "queue length"  ETV
vector 3255  Inet.tas9.host88.ppp[0].queue  "queue length"  ETV
vector 2419  Inet.tas6.host59.ppp[0].queue  "queue length"  ETV
vector 545  Inet.sas1.host_WebServer28.ppp[0].queue  "queue length"  ETV
vector 391  Inet.sas1.edge5.ppp[0].queue  "queue length"  ETV
vector 2105  Inet.tas6.gw1.ppp[5].queue  "queue length"  ETV
vector 2207  Inet.tas6.edge7.ppp[7].queue  "queue length"  ETV
vector 3465  Inet.tas10.host45.ppp[0].queue  "queue length"  ETV
vector 5731  Inet.sas18.host_WebServer62.ppp[0].queue  "queue length"  ETV
vector 5579  Inet.sas18.edge11.ppp[5].queue  "queue length"  ETV
vector 2429  Inet.tas6.host_WebServer64.ppp[0].queue  "queue length"  ETV
vector 2221  Inet.tas6.edge9.ppp[0].queue  "queue length"  ETV
vector 2259  Inet.tas6.edge11.ppp[3].queue  "queue length"  ETV
vector 3135  Inet.tas9.host28.ppp[0].queue  "queue length"  ETV
vector 3813  Inet.sas12.host_WebServer19.ppp[0].queue  "queue length"  ETV
vector 3755  Inet.sas12.edge4.ppp[0].queue  "queue length"  ETV
vector 2905  Inet.tas9.gw1.ppp[3].queue  "queue length"  ETV
vector 2961  Inet.tas9.edge5.ppp[1].queue  "queue length"  ETV
vector 5513  Inet.sas18.edge8.ppp[0].queue  "queue length"  ETV
vector 1501  Inet.sas5.gw2.ppp[4].queue  "queue length"  ETV
vector 1687  Inet.sas5.edge14.ppp[2].queue  "queue length"  ETV
vector 2849  Inet.sas8.host34.ppp[0].queue  "queue length"  ETV
vector 5777  Inet.sas18.host85.ppp[0].queue  "queue length"  ETV
vector 4993  Inet.sas16.host66.ppp[0].queue  "queue length"  ETV
vector 3245  Inet.tas9.host83.ppp[0].queue  "queue length"  ETV
vector 1375  Inet.tas4.host12.ppp[0].queue  "queue length"  ETV
vector 835  Inet.tas2.host_WebServer30.ppp[0].queue  "queue length"  ETV
vector 701  Inet.tas2.edge2.ppp[6].queue  "queue length"  ETV
vector 3265  Inet.tas9.host93.ppp[0].queue  "queue length"  ETV
vector 5325  Inet.sas17.host_WebServer51.ppp[0].queue  "queue length"  ETV
vector 5151  Inet.sas17.edge6.ppp[5].queue  "queue length"  ETV
vector 3607  Inet.sas11.host8.ppp[0].queue  "queue length"  ETV
vector 643  Inet.sas1.host77.ppp[0].queue  "queue length"  ETV
vector 2867  Inet.sas8.host43.ppp[0].queue  "queue length"  ETV
vector 635  Inet.sas1.host73.ppp[0].queue  "queue length"  ETV
vector 5775  Inet.sas18.host84.ppp[0].queue  "queue length"  ETV
vector 3439  Inet.tas10.host32.ppp[0].queue  "queue length"  ETV
vector 2667  Inet.sas7.host36.ppp[0].queue  "queue length"  ETV
vector 2347  Inet.tas6.host23.ppp[0].queue  "queue length"  ETV
vector 3669  Inet.sas11.host39.ppp[0].queue  "queue length"  ETV
vector 4301  Inet.sas15.gw1.ppp[2].queue  "queue length"  ETV
vector 4347  Inet.sas15.edge4.ppp[3].queue  "queue length"  ETV
vector 1427  Inet.tas4.host38.ppp[0].queue  "queue length"  ETV
vector 3663  Inet.sas11.host36.ppp[0].queue  "queue length"  ETV
vector 5971  Inet.sas19.host9.ppp[0].queue  "queue length"  ETV
vector 4515  Inet.sas15.host20.ppp[0].queue  "queue length"  ETV
vector 1425  Inet.tas4.host37.ppp[0].queue  "queue length"  ETV
vector 2445  Inet.tas6.host72.ppp[0].queue  "queue length"  ETV
vector 2113  Inet.tas6.gw2.ppp[1].queue  "queue length"  ETV
vector 2239  Inet.tas6.edge10.ppp[1].queue  "queue length"  ETV
vector 1369  Inet.tas4.host9.ppp[0].queue  "queue length"  ETV
vector 6073  Inet.sas19.host60.ppp[0].queue  "queue length"  ETV
vector 871  Inet.tas2.host_WebServer48.ppp[0].queue  "queue length"  ETV
vector 771  Inet.tas2.edge7.ppp[0].queue  "queue length"  ETV
vector 3725  Inet.sas12.gw1.ppp[4].queue  "queue length"  ETV
vector 3777  Inet.sas12.edge5.ppp[5].queue  "queue length"  ETV
vector 3197  Inet.tas9.host_WebServer59.ppp[0].queue  "queue length"  ETV
vector 3011  Inet.tas9.edge8.ppp[0].queue  "queue length"  ETV
vector 2909  Inet.tas9.gw1.ppp[5].queue  "queue length"  ETV
vector 2991  Inet.tas9.edge7.ppp[1].queue  "queue length"  ETV
vector 301  Inet.sas0.host67.ppp[0].queue  "queue length"  ETV
vector 5059  Inet.sas16.host99.ppp[0].queue  "queue length"  ETV
vector 2845  Inet.sas8.host_WebServer32.ppp[0].queue  "queue length"  ETV
vector 2749  Inet.sas8.edge6.ppp[0].queue  "queue length"  ETV
vector 687  Inet.tas2.gw1.ppp[6].queue  "queue length"  ETV
vector 775  Inet.tas2.edge7.ppp[2].queue  "queue length"  ETV
vector 265  Inet.sas0.host_WebServer49.ppp[0].queue  "queue length"  ETV
vector 125  Inet.sas0.edge8.ppp[0].queue  "queue length"  ETV
vector 2109  Inet.tas6.gw1.ppp[7].queue  "queue length"  ETV
vector 2225  Inet.tas6.edge9.ppp[2].queue  "queue length"  ETV
vector 1913  Inet.sas5.host_WebServer70.ppp[0].queue  "queue length"  ETV
vector 1621  Inet.sas5.edge10.ppp[0].queue  "queue length"  ETV
vector 4681  Inet.sas16.gw1.ppp[6].queue  "queue length"  ETV
vector 4775  Inet.sas16.edge8.ppp[5].queue  "queue length"  ETV
vector 4203  Inet.sas14.host21.ppp[0].queue  "queue length"  ETV
vector 5809  Inet.sas18.host101.ppp[0].queue  "queue length"  ETV
vector 247  Inet.sas0.host_WebServer40.ppp[0].queue  "queue length"  ETV
vector 5225  Inet.sas17.edge11.ppp[1].queue  "queue length"  ETV
vector 2443  Inet.tas6.host_WebServer71.ppp[0].queue  "queue length"  ETV
vector 2237  Inet.tas6.edge10.ppp[0].queue  "queue length"  ETV
vector 2117  Inet.tas6.gw2.ppp[3].queue  "queue length"  ETV
vector 2281  Inet.tas6.edge12.ppp[4].queue  "queue length"  ETV
vector 283  Inet.sas0.host58.ppp[0].queue  "queue length"  ETV
vector 821  Inet.tas2.host23.ppp[0].queue  "queue length"  ETV
vector 813  Inet.tas2.host19.ppp[0].queue  "queue length"  ETV
vector 2767  Inet.sas8.edge7.ppp[0].queue  "queue length"  ETV
vector 3487  Inet.sas11.gw1.ppp[5].queue  "queue length"  ETV
vector 3581  Inet.sas11.edge6.ppp[6].queue  "queue length"  ETV
vector 2661  Inet.sas7.host33.ppp[0].queue  "queue length"  ETV
vector 5037  Inet.sas16.host88.ppp[0].queue  "queue length"  ETV
vector 4017  Inet.sas13.host42.ppp[0].queue  "queue length"  ETV
vector 5721  Inet.sas18.host57.ppp[0].queue  "queue length"  ETV
vector 107  Inet.sas0.edge7.ppp[0].queue  "queue length"  ETV
vector 2923  Inet.tas9.gw2.ppp[5].queue  "queue length"  ETV
vector 3105  Inet.tas9.edge13.ppp[5].queue  "queue length"  ETV
vector 1453  Inet.tas4.host51.ppp[0].queue  "queue length"  ETV
vector 5999  Inet.sas19.host23.ppp[0].queue  "queue length"  ETV
vector 3675  Inet.sas11.host42.ppp[0].queue  "queue length"  ETV
vector 1405  Inet.tas4.host_WebServer27.ppp[0].queue  "queue length"  ETV
vector 1291  Inet.tas4.edge4.ppp[0].queue  "queue length"  ETV
vector 357  Inet.sas1.gw2.ppp[4].queue  "queue length"  ETV
vector 507  Inet.sas1.edge11.ppp[3].queue  "queue length"  ETV
vector 567  Inet.sas1.host39.ppp[0].queue  "queue length"  ETV
vector 3239  Inet.tas9.host80.ppp[0].queue  "queue length"  ETV
vector 2609  Inet.sas7.host_WebServer7.ppp[0].queue  "queue length"  ETV
vector 2255  Inet.tas6.edge11.ppp[1].queue  "queue length"  ETV
vector 2535  Inet.sas7.edge2.ppp[1].queue  "queue length"  ETV
vector 2375  Inet.tas6.host37.ppp[0].queue  "queue length"  ETV
vector 1819  Inet.sas5.host_WebServer23.ppp[0].queue  "queue length"  ETV
vector 1519  Inet.sas5.edge4.ppp[0].queue  "queue length"  ETV
vector 1483  Inet.sas5.gw1.ppp[3].queue  "queue length"  ETV
vector 1559  Inet.sas5.edge6.ppp[1].queue  "queue length"  ETV
vector 1443  Inet.tas4.host_WebServer46.ppp[0].queue  "queue length"  ETV
vector 4211  Inet.sas14.host25.ppp[0].queue  "queue length"  ETV
vector 2985  Inet.tas9.edge6.ppp[4].queue  "queue length"  ETV
vector 5651  Inet.sas18.host22.ppp[0].queue  "queue length"  ETV
vector 5015  Inet.sas16.host77.ppp[0].queue  "queue length"  ETV
vector 1227  Inet.tas3.host84.ppp[0].queue  "queue length"  ETV
vector 5719  Inet.sas18.host56.ppp[0].queue  "queue length"  ETV
vector 619  Inet.sas1.host65.ppp[0].queue  "queue length"  ETV
vector 5983  Inet.sas19.host_WebServer15.ppp[0].queue  "queue length"  ETV
vector 5847  Inet.sas19.edge2.ppp[0].queue  "queue length"  ETV
vector 5845  Inet.sas19.gw1.ppp[7].queue  "queue length"  ETV
vector 5963  Inet.sas19.edge8.ppp[3].queue  "queue length"  ETV
vector 263  Inet.sas0.host48.ppp[0].queue  "queue length"  ETV
vector 3681  Inet.sas11.host_WebServer45.ppp[0].queue  "queue length"  ETV
vector 3569  Inet.sas11.edge6.ppp[0].queue  "queue length"  ETV
vector 4041  Inet.sas14.gw1.ppp[2].queue  "queue length"  ETV
vector 4077  Inet.sas14.edge3.ppp[4].queue  "queue length"  ETV
vector 3357  Inet.tas10.edge5.ppp[2].queue  "queue length"  ETV
vector 291  Inet.sas0.host62.ppp[0].queue  "queue length"  ETV
vector 287  Inet.sas0.host60.ppp[0].queue  "queue length"  ETV
vector 537  Inet.sas1.host_WebServer24.ppp[0].queue  "queue length"  ETV
vector 379  Inet.sas1.edge4.ppp[0].queue  "queue length"  ETV
vector 5083  Inet.sas17.gw2.ppp[1].queue  "queue length"  ETV
vector 5193  Inet.sas17.edge9.ppp[4].queue  "queue length"  ETV
vector 1341  Inet.tas4.edge7.ppp[0].queue  "queue length"  ETV
vector 5835  Inet.sas19.gw1.ppp[2].queue  "queue length"  ETV
vector 5875  Inet.sas19.edge3.ppp[3].queue  "queue length"  ETV
vector 5279  Inet.sas17.host28.ppp[0].queue  "queue length"  ETV
vector 1105  Inet.tas3.host23.ppp[0].queue  "queue length"  ETV
vector 3233  Inet.tas9.host77.ppp[0].queue  "queue length"  ETV
vector 5837  Inet.sas19.gw1.ppp[3].queue  "queue length"  ETV
vector 5899  Inet.sas19.edge4.ppp[4].queue  "queue length"  ETV
vector 5711  Inet.sas18.host52.ppp[0].queue  "queue length"  ETV
vector 4643  Inet.sas15.host84.ppp[0].queue  "queue length"  ETV
vector 5407  Inet.sas18.gw1.ppp[5].queue  "queue length"  ETV
vector 5507  Inet.sas18.edge7.ppp[8].queue  "queue length"  ETV
vector 4539  Inet.sas15.host32.ppp[0].queue  "queue length"  ETV
vector 517  Inet.sas1.host14.ppp[0].queue  "queue length"  ETV
vector 4529  Inet.sas15.host_WebServer27.ppp[0].queue  "queue length"  ETV
vector 5411  Inet.sas18.gw1.ppp[7].queue  "queue length"  ETV
vector 5549  Inet.sas18.edge9.ppp[8].queue  "queue length"  ETV
vector 4289  Inet.sas14.host64.ppp[0].queue  "queue length"  ETV
vector 1259  Inet.tas4.gw1.ppp[7].queue  "queue length"  ETV
vector 1359  Inet.tas4.edge8.ppp[1].queue  "queue length"  ETV
vector 2533  Inet.sas7.edge2.ppp[0].queue  "queue length"  ETV
vector 4299  Inet.sas15.gw1.ppp[1].queue  "queue length"  ETV
vector 4337  Inet.sas15.edge3.ppp[8].queue  "queue length"  ETV
vector 4901  Inet.sas16.host20.ppp[0].queue  "queue length"  ETV
vector 3143  Inet.tas9.host32.ppp[0].queue  "queue length"  ETV
vector 4535  Inet.sas15.host_WebServer30.ppp[0].queue  "queue length"  ETV
vector 1617  Inet.sas5.edge9.ppp[8].queue  "queue length"  ETV
vector 355  Inet.sas1.gw2.ppp[3].queue  "queue length"  ETV
vector 497  Inet.sas1.edge10.ppp[8].queue  "queue length"  ETV
vector 1489  Inet.sas5.gw1.ppp[6].queue  "queue length"  ETV
vector 1607  Inet.sas5.edge9.ppp[3].queue  "queue length"  ETV
vector 2613  Inet.sas7.host_WebServer9.ppp[0].queue  "queue length"  ETV
vector 1255  Inet.tas4.gw1.ppp[5].queue  "queue length"  ETV
vector 1329  Inet.tas4.edge6.ppp[2].queue  "queue length"  ETV
vector 3819  Inet.sas12.host_WebServer22.ppp[0].queue  "queue length"  ETV
vector 5419  Inet.sas18.gw2.ppp[3].queue  "queue length"  ETV
vector 5583  Inet.sas18.edge12.ppp[1].queue  "queue length"  ETV
vector 609  Inet.sas1.host60.ppp[0].queue  "queue length"  ETV
vector 3467  Inet.tas10.host46.ppp[0].queue  "queue length"  ETV
vector 4945  Inet.sas16.host_WebServer42.ppp[0].queue  "queue length"  ETV
vector 4751  Inet.sas16.edge7.ppp[0].queue  "queue length"  ETV
vector 4695  Inet.sas16.gw2.ppp[4].queue  "queue length"  ETV
vector 4887  Inet.sas16.edge14.ppp[8].queue  "queue length"  ETV
vector 725  Inet.tas2.edge4.ppp[2].queue  "queue length"  ETV
vector 5263  Inet.sas17.host20.ppp[0].queue  "queue length"  ETV
vector 3413  Inet.tas10.host19.ppp[0].queue  "queue length"  ETV
vector 591  Inet.sas1.host51.ppp[0].queue  "queue length"  ETV
vector 5655  Inet.sas18.host24.ppp[0].queue  "queue length"  ETV
vector 3809  Inet.sas12.host17.ppp[0].queue  "queue length"  ETV
vector 5819  Inet.sas18.host_WebServer106.ppp[0].queue  "queue length"  ETV
vector 5619  Inet.sas18.edge15.ppp[0].queue  "queue length"  ETV
vector 3855  Inet.sas13.gw1.ppp[5].queue  "queue length"  ETV
vector 3937  Inet.sas13.edge6.ppp[6].queue  "queue length"  ETV
vector 4089  Inet.sas14.edge3.ppp[10].queue  "queue length"  ETV
vector 1897  Inet.sas5.host62.ppp[0].queue  "queue length"  ETV
vector 4889  Inet.sas16.edge14.ppp[9].queue  "queue length"  ETV
vector 1451  Inet.tas4.host50.ppp[0].queue  "queue length"  ETV
vector 4593  Inet.sas15.host59.ppp[0].queue  "queue length"  ETV
vector 531  Inet.sas1.host_WebServer21.ppp[0].queue  "queue length"  ETV
vector 5409  Inet.sas18.gw1.ppp[6].queue  "queue length"  ETV
vector 5519  Inet.sas18.edge8.ppp[3].queue  "queue length"  ETV
vector 5793  Inet.sas18.host93.ppp[0].queue  "queue length"  ETV
vector 37  Inet.sas0.gw2.ppp[1].queue  "queue length"  ETV
vector 129  Inet.sas0.edge8.ppp[2].queue  "queue length"  ETV
vector 4231  Inet.sas14.host35.ppp[0].queue  "queue length"  ETV
vector 2011  Inet.sas5.host_WebServer119.ppp[0].queue  "queue length"  ETV
vector 1721  Inet.sas5.edge16.ppp[0].queue  "queue length"  ETV
vector 1503  Inet.sas5.gw2.ppp[5].queue  "queue length"  ETV
vector 1711  Inet.sas5.edge15.ppp[6].queue  "queue length"  ETV
vector 5249  Inet.sas17.host13.ppp[0].queue  "queue length"  ETV
vector 2377  Inet.tas6.host38.ppp[0].queue  "queue length"  ETV
vector 4353  Inet.sas15.edge5.ppp[0].queue  "queue length"  ETV
vector 343  Inet.sas1.gw1.ppp[3].queue  "queue length"  ETV
vector 405  Inet.sas1.edge5.ppp[7].queue  "queue length"  ETV
vector 3153  Inet.tas9.host37.ppp[0].queue  "queue length"  ETV
vector 1875  Inet.sas5.host51.ppp[0].queue  "queue length"  ETV
vector 4365  Inet.sas15.edge5.ppp[6].queue  "queue length"  ETV
vector 1979  Inet.sas5.host103.ppp[0].queue  "queue length"  ETV
vector 1165  Inet.tas3.host_WebServer53.ppp[0].queue  "queue length"  ETV
vector 151  Inet.sas0.edge9.ppp[5].queue  "queue length"  ETV
vector 3979  Inet.sas13.host_WebServer23.ppp[0].queue  "queue length"  ETV
vector 353  Inet.sas1.gw2.ppp[2].queue  "queue length"  ETV
vector 479  Inet.sas1.edge9.ppp[7].queue  "queue length"  ETV
vector 3129  Inet.tas9.host25.ppp[0].queue  "queue length"  ETV
vector 3627  Inet.sas11.host_WebServer18.ppp[0].queue  "queue length"  ETV
vector 3511  Inet.sas11.edge3.ppp[0].queue  "queue length"  ETV
vector 2097  Inet.tas6.gw1.ppp[1].queue  "queue length"  ETV
vector 2141  Inet.tas6.edge3.ppp[9].queue  "queue length"  ETV
vector 2057  Inet.sas5.host_WebServer142.ppp[0].queue  "queue length"  ETV
vector 1785  Inet.sas5.edge20.ppp[0].queue  "queue length"  ETV
vector 345  Inet.sas1.gw1.ppp[4].queue  "queue length"  ETV
vector 421  Inet.sas1.edge6.ppp[7].queue  "queue length"  ETV
vector 1089  Inet.tas3.host15.ppp[0].queue  "queue length"  ETV
vector 5311  Inet.sas17.host44.ppp[0].queue  "queue length"  ETV
vector 4689  Inet.sas16.gw2.ppp[1].queue  "queue length"  ETV
vector 4817  Inet.sas16.edge11.ppp[1].queue  "queue length"  ETV
vector 1943  Inet.sas5.host85.ppp[0].queue  "queue length"  ETV
vector 5319  Inet.sas17.host48.ppp[0].queue  "queue length"  ETV
vector 469  Inet.sas1.edge9.ppp[2].queue  "queue length"  ETV
vector 2655  Inet.sas7.host30.ppp[0].queue  "queue length"  ETV
vector 5509  Inet.sas18.edge7.ppp[9].queue  "queue length"  ETV
vector 5977  Inet.sas19.host_WebServer12.ppp[0].queue  "queue length"  ETV
vector 39  Inet.sas0.gw2.ppp[2].queue  "queue length"  ETV
vector 159  Inet.sas0.edge9.ppp[9].queue  "queue length"  ETV
vector 901  Inet.tas3.gw1.ppp[2].queue  "queue length"  ETV
vector 945  Inet.tas3.edge4.ppp[4].queue  "queue length"  ETV
vector 3147  Inet.tas9.host_WebServer34.ppp[0].queue  "queue length"  ETV
vector 2959  Inet.tas9.edge5.ppp[0].queue  "queue length"  ETV
vector 339  Inet.sas1.gw1.ppp[1].queue  "queue length"  ETV
vector 365  Inet.sas1.edge3.ppp[3].queue  "queue length"  ETV
vector 2617  Inet.sas7.host11.ppp[0].queue  "queue length"  ETV
vector 3175  Inet.tas9.host48.ppp[0].queue  "queue length"  ETV
vector 4235  Inet.sas14.host_WebServer37.ppp[0].queue  "queue length"  ETV
vector 4115  Inet.sas14.edge6.ppp[0].queue  "queue length"  ETV
vector 5425  Inet.sas18.gw2.ppp[6].queue  "queue length"  ETV
vector 5623  Inet.sas18.edge15.ppp[2].queue  "queue length"  ETV
vector 921  Inet.tas3.gw2.ppp[4].queue  "queue length"  ETV
vector 1085  Inet.tas3.edge13.ppp[6].queue  "queue length"  ETV
vector 1871  Inet.sas5.host49.ppp[0].queue  "queue length"  ETV
vector 5363  Inet.sas17.host70.ppp[0].queue  "queue length"  ETV
vector 3481  Inet.sas11.gw1.ppp[2].queue  "queue length"  ETV
vector 3523  Inet.sas11.edge3.ppp[6].queue  "queue length"  ETV
vector 551  Inet.sas1.host_WebServer31.ppp[0].queue  "queue length"  ETV
vector 4309  Inet.sas15.gw1.ppp[6].queue  "queue length"  ETV
vector 4425  Inet.sas15.edge8.ppp[6].queue  "queue length"  ETV
vector 4257  Inet.sas14.host48.ppp[0].queue  "queue length"  ETV
vector 4711  Inet.sas16.edge4.ppp[1].queue  "queue length"  ETV
vector 4627  Inet.sas15.host76.ppp[0].queue  "queue length"  ETV
vector 4019  Inet.sas13.host_WebServer43.ppp[0].queue  "queue length"  ETV
vector 4481  Inet.sas15.edge11.ppp[7].queue  "queue length"  ETV
vector 1257  Inet.tas4.gw1.ppp[6].queue  "queue length"  ETV
vector 1355  Inet.tas4.edge7.ppp[7].queue  "queue length"  ETV
vector 587  Inet.sas1.host49.ppp[0].queue  "queue length"  ETV
vector 2435  Inet.tas6.host67.ppp[0].queue  "queue length"  ETV
vector 1939  Inet.sas5.host83.ppp[0].queue  "queue length"  ETV
vector 1705  Inet.sas5.edge15.ppp[3].queue  "queue length"  ETV
vector 5761  Inet.sas18.host77.ppp[0].queue  "queue length"  ETV
vector 1937  Inet.sas5.host82.ppp[0].queue  "queue length"  ETV
vector 3453  Inet.tas10.host39.ppp[0].queue  "queue length"  ETV
vector 2101  Inet.tas6.gw1.ppp[3].queue  "queue length"  ETV
vector 2173  Inet.tas6.edge5.ppp[6].queue  "queue length"  ETV
vector 2601  Inet.sas7.edge6.ppp[4].queue  "queue length"  ETV
vector 2137  Inet.tas6.edge3.ppp[7].queue  "queue length"  ETV
vector 2333  Inet.tas6.host16.ppp[0].queue  "queue length"  ETV
vector 1481  Inet.sas5.gw1.ppp[2].queue  "queue length"  ETV
vector 1543  Inet.sas5.edge5.ppp[3].queue  "queue length"  ETV
vector 679  Inet.tas2.gw1.ppp[2].queue  "queue length"  ETV
vector 709  Inet.tas2.edge3.ppp[3].queue  "queue length"  ETV
vector 2357  Inet.tas6.host28.ppp[0].queue  "queue length"  ETV
vector 3925  Inet.sas13.edge6.ppp[0].queue  "queue length"  ETV
vector 5077  Inet.sas17.gw1.ppp[5].queue  "queue length"  ETV
vector 5171  Inet.sas17.edge7.ppp[9].queue  "queue length"  ETV
vector 2067  Inet.sas5.host147.ppp[0].queue  "queue length"  ETV
vector 5585  Inet.sas18.edge12.ppp[2].queue  "queue length"  ETV
vector 833  Inet.tas2.host29.ppp[0].queue  "queue length"  ETV
vector 2417  Inet.tas6.host58.ppp[0].queue  "queue length"  ETV
vector 2483  Inet.tas6.host91.ppp[0].queue  "queue length"  ETV
vector 1945  Inet.sas5.host86.ppp[0].queue  "queue length"  ETV
vector 3703  Inet.sas11.host56.ppp[0].queue  "queue length"  ETV
vector 1397  Inet.tas4.host23.ppp[0].queue  "queue length"  ETV
vector 2903  Inet.tas9.gw1.ppp[2].queue  "queue length"  ETV
vector 2951  Inet.tas9.edge4.ppp[7].queue  "queue length"  ETV
vector 1497  Inet.sas5.gw2.ppp[2].queue  "queue length"  ETV
vector 1663  Inet.sas5.edge12.ppp[7].queue  "queue length"  ETV
vector 1881  Inet.sas5.host54.ppp[0].queue  "queue length"  ETV
vector 2663  Inet.sas7.host34.ppp[0].queue  "queue length"  ETV
vector 2509  Inet.tas6.host_WebServer104.ppp[0].queue  "queue length"  ETV
vector 2311  Inet.tas6.edge14.ppp[0].queue  "queue length"  ETV
vector 4679  Inet.sas16.gw1.ppp[5].queue  "queue length"  ETV
vector 4755  Inet.sas16.edge7.ppp[2].queue  "queue length"  ETV
vector 3567  Inet.sas11.edge5.ppp[9].queue  "queue length"  ETV
vector 1957  Inet.sas5.host92.ppp[0].queue  "queue length"  ETV
vector 2021  Inet.sas5.host124.ppp[0].queue  "queue length"  ETV
vector 2073  Inet.sas5.host150.ppp[0].queue  "queue length"  ETV
vector 1191  Inet.tas3.host66.ppp[0].queue  "queue length"  ETV
vector 2489  Inet.tas6.host94.ppp[0].queue  "queue length"  ETV
vector 2957  Inet.tas9.edge4.ppp[10].queue  "queue length"  ETV
vector 2817  Inet.sas8.host18.ppp[0].queue  "queue length"  ETV
vector 3997  Inet.sas13.host32.ppp[0].queue  "queue length"  ETV
vector 3423  Inet.tas10.host24.ppp[0].queue  "queue length"  ETV
vector 5421  Inet.sas18.gw2.ppp[4].queue  "queue length"  ETV
vector 5603  Inet.sas18.edge13.ppp[5].queue  "queue length"  ETV
vector 4247  Inet.sas14.host43.ppp[0].queue  "queue length"  ETV
vector 5273  Inet.sas17.host25.ppp[0].queue  "queue length"  ETV
vector 5415  Inet.sas18.gw2.ppp[1].queue  "queue length"  ETV
vector 5565  Inet.sas18.edge10.ppp[5].queue  "queue length"  ETV
vector 3409  Inet.tas10.host17.ppp[0].queue  "queue length"  ETV
vector 3947  Inet.sas13.host7.ppp[0].queue  "queue length"  ETV
vector 2525  Inet.sas7.gw1.ppp[2].queue  "queue length"  ETV
vector 2551  Inet.sas7.edge3.ppp[1].queue  "queue length"  ETV
vector 4181  Inet.sas14.host10.ppp[0].queue  "queue length"  ETV
vector 1135  Inet.tas3.host_WebServer38.ppp[0].queue  "queue length"  ETV
vector 2343  Inet.tas6.host_WebServer21.ppp[0].queue  "queue length"  ETV
vector 2103  Inet.tas6.gw1.ppp[4].queue  "queue length"  ETV
vector 2177  Inet.tas6.edge6.ppp[1].queue  "queue length"  ETV
vector 2127  Inet.tas6.edge3.ppp[2].queue  "queue length"  ETV
vector 1249  Inet.tas4.gw1.ppp[2].queue  "queue length"  ETV
vector 1283  Inet.tas4.edge3.ppp[4].queue  "queue length"  ETV
vector 979  Inet.tas3.edge7.ppp[0].queue  "queue length"  ETV
vector 1485  Inet.sas5.gw1.ppp[4].queue  "queue length"  ETV
vector 1581  Inet.sas5.edge7.ppp[4].queue  "queue length"  ETV
vector 605  Inet.sas1.host58.ppp[0].queue  "queue length"  ETV
vector 3953  Inet.sas13.host10.ppp[0].queue  "queue length"  ETV
vector 5069  Inet.sas17.gw1.ppp[1].queue  "queue length"  ETV
vector 5093  Inet.sas17.edge3.ppp[1].queue  "queue length"  ETV
vector 5295  Inet.sas17.host36.ppp[0].queue  "queue length"  ETV
vector 4565  Inet.sas15.host45.ppp[0].queue  "queue length"  ETV
vector 2223  Inet.tas6.edge9.ppp[1].queue  "queue length"  ETV
vector 4503  Inet.sas15.host_WebServer14.ppp[0].queue  "queue length"  ETV
vector 4321  Inet.sas15.edge3.ppp[0].queue  "queue length"  ETV
vector 4315  Inet.sas15.gw2.ppp[2].queue  "queue length"  ETV
vector 4463  Inet.sas15.edge10.ppp[7].queue  "queue length"  ETV
vector 1171  Inet.tas3.host56.ppp[0].queue  "queue length"  ETV
vector 2843  Inet.sas8.host31.ppp[0].queue  "queue length"  ETV
vector 3707  Inet.sas11.host58.ppp[0].queue  "queue length"  ETV
vector 2077  Inet.sas5.host152.ppp[0].queue  "queue length"  ETV
vector 2119  Inet.tas6.gw2.ppp[4].queue  "queue length"  ETV
vector 2297  Inet.tas6.edge13.ppp[4].queue  "queue length"  ETV
vector 3479  Inet.sas11.gw1.ppp[1].queue  "queue length"  ETV
vector 3493  Inet.sas11.edge2.ppp[1].queue  "queue length"  ETV
vector 2873  Inet.sas8.host46.ppp[0].queue  "queue length"  ETV
vector 3295  Inet.tas10.gw1.ppp[4].queue  "queue length"  ETV
vector 3371  Inet.tas10.edge5.ppp[9].queue  "queue length"  ETV
vector 3151  Inet.tas9.host36.ppp[0].queue  "queue length"  ETV
vector 1509  Inet.sas5.gw3.ppp[1].queue  "queue length"  ETV
vector 1751  Inet.sas5.edge17.ppp[5].queue  "queue length"  ETV
vector 1415  Inet.tas4.host32.ppp[0].queue  "queue length"  ETV
vector 1657  Inet.sas5.edge12.ppp[4].queue  "queue length"  ETV